                         Program Version 6.0.1  -  RELEASE   -
|  1> ! aug-cc-pVTZ aug-cc-pVTZ/C DLPNO-CCSD(T)
|  2>
|  3> %maxcore 1000000
|  4>
|  5>
|  6>
|  7> * xyz +1 1
|  8> H   -0.841770   0.004911   3.501509
|  9> H    0.825367   0.004911   3.501509
| 10> H   -0.008201  -0.790460   2.244923
| 11> H   -0.008201   0.800282   2.244923
| 12> N   -0.008201   0.004911   2.897443
| 13> **                         ****END OF INPUT****

CARTESIAN COORDINATES (ANGSTROEM)
---------------------------------
  H     -0.841770    0.004911    3.501509
  H      0.825367    0.004911    3.501509
  H     -0.008201   -0.790460    2.244923
  H     -0.008201    0.800282    2.244923
  N     -0.008201    0.004911    2.897443

 Total Charge           Charge          ....    1
 Multiplicity           Mult            ....    1
 Number of Electrons    NEL             ....   10
 Basis Dimension        Dim             ....  138

ORBITAL ENERGIES
----------------

  NO   OCC          E(Eh)            E(eV)
   0   2.0000     -15.940474      -433.7623
   1   2.0000      -1.542304       -41.9682
   2   2.0000      -1.014629       -27.6095
   3   2.0000      -0.992647       -27.0113
   4   2.0000      -0.978951       -26.6386
   5   0.0000      -0.147553        -4.0151
   6   0.0000      -0.092801        -2.5253
   7   0.0000      -0.090950        -2.4749
   8   0.0000      -0.090135        -2.4527
   9   0.0000      -0.028712        -0.7813

MULLIKEN ATOMIC CHARGES
-----------------------
   0 H :    0.250815
   1 H :    0.250815
   2 H :    0.249566
   3 H :    0.249566
   4 N :   -0.000761
Sum of atomic charges:    1.0000000

LOEWDIN ATOMIC CHARGES
----------------------
   0 H :   -0.107734
   1 H :   -0.107735
   2 H :   -0.115144
   3 H :   -0.115144
   4 N :    1.445757

  Mayer bond orders larger than 0.100000
B(  0-H ,  4-N ) :   0.9290 B(  1-H ,  4-N ) :   0.9290 B(  2-H ,  4-N ) :   0.9281
B(  3-H ,  4-N ) :   0.9281

E(0)                                       ...    -56.561438419
E(0)                                       ...    -56.561438419
E(CORR)(strong-pairs)                      ...     -0.247510217
E(CORR)(weak-pairs)                        ...     -0.000179371
E(CORR)(corrected)                         ...     -0.247689589
E(TOT)                                     ...    -56.809128007
E(CCSD(T))                                 ...    -56.815876861
FINAL SINGLE POINT ENERGY       -56.815876861271

DIPOLE MOMENT
-------------

Method             : SCF
Type of density    : Electron Density
Multiplicity       :   1
Irrep              :   0
Energy             :   -56.5614384185082457 Eh
Relativity type    :
Basis              : AO
                                X                 Y                 Z
Electronic contribution:      0.000000162      -0.000000000       0.030177847
Nuclear contribution   :     -0.000000728      -0.000000000      -0.070565647
                        -----------------------------------------
Total Dipole Moment    :     -0.000000566      -0.000000000      -0.040387801
                        -----------------------------------------
Magnitude (a.u.)       :      0.040387801
Magnitude (Debye)      :      0.102657631

Rotational constants in cm-1:             6.299234             5.876139             5.629971
Rotational constants in MHz :        188846.275015        176162.229717        168782.295254

                             ****ORCA TERMINATED NORMALLY****
TOTAL RUN TIME: 0 days 0 hours 0 minutes 31 seconds 402 msec
