                         Program Version 6.0.1  -  RELEASE   -
|  1> ! aug-cc-pVTZ aug-cc-pVTZ/C DLPNO-CCSD(T)
|  2>
|  3> %maxcore 1000000
|  4> %PAL NPROCS 40 END
|  5>
|  6>
|  7> * xyz +1 1
|  8> C    1.196745   0.716602   0.000000
|  9> C    0.000000   1.394554   0.000000
| 10> C   -1.196745   0.716602   0.000000
| 11> C   -1.196745  -0.716602   0.000000
| 12> C    0.000000  -1.394554   0.000000
| 13> C    1.196745  -0.716602   0.000000
| 14> H    2.140067   1.281657   0.000000
| 15> H    0.000000   2.494008   0.000000
| 16> H   -2.140067   1.281657   0.000000
| 17> H   -2.140067  -1.281657   0.000000
| 18> H    0.000000  -2.494008   0.000000
| 19> H    2.140067  -1.281657   0.000000
| 20> H   -0.841770   0.004911   3.501509
| 21> H    0.825367   0.004911   3.501509
| 22> H   -0.008201  -0.790460   2.244923
| 23> H   -0.008201   0.800282   2.244923
| 24> N   -0.008201   0.004911   2.897443
| 25> *
| 26>
| 27>                          ****END OF INPUT****

CARTESIAN COORDINATES (ANGSTROEM)
---------------------------------
  C      1.196745    0.716602    0.000000
  C      0.000000    1.394554    0.000000
  C     -1.196745    0.716602    0.000000
  C     -1.196745   -0.716602    0.000000
  C      0.000000   -1.394554    0.000000
  C      1.196745   -0.716602    0.000000
  H      2.140067    1.281657    0.000000
  H      0.000000    2.494008    0.000000
  H     -2.140067    1.281657    0.000000
  H     -2.140067   -1.281657    0.000000
  H      0.000000   -2.494008    0.000000
  H      2.140067   -1.281657    0.000000
  H     -0.841770    0.004911    3.501509
  H      0.825367    0.004911    3.501509
  H     -0.008201   -0.790460    2.244923
  H     -0.008201    0.800282    2.244923
  N     -0.008201    0.004911    2.897443

 Total Charge           Charge          ....    1
 Multiplicity           Mult            ....    1
 Number of Electrons    NEL             ....   52
 Basis Dimension        Dim             ....  552

ORBITAL ENERGIES
----------------

  NO   OCC          E(Eh)            E(eV)
   0   2.0000     -15.879892      -432.1138
   1   2.0000     -11.394837      -310.0693
   2   2.0000     -11.394759      -310.0672
   3   2.0000     -11.393856      -310.0426
   4   2.0000     -11.393717      -310.0388
   5   2.0000     -11.386656      -309.8467
   6   2.0000     -11.386649      -309.8465
   7   2.0000      -1.488068       -40.4924
   8   2.0000      -1.309956       -35.6457
   9   2.0000      -1.181357       -32.1464
  10   2.0000      -1.159450       -31.5502
  11   2.0000      -0.983769       -26.7697
  12   2.0000      -0.965341       -26.2683
  13   2.0000      -0.961939       -26.1757
  14   2.0000      -0.939993       -25.5785
  15   2.0000      -0.925777       -25.1917
  16   2.0000      -0.856873       -23.3167
  17   2.0000      -0.785502       -21.3746
  18   2.0000      -0.773824       -21.0568
  19   2.0000      -0.742711       -20.2102
  20   2.0000      -0.729421       -19.8486
  21   2.0000      -0.662001       -18.0140
  22   2.0000      -0.650210       -17.6931
  23   2.0000      -0.635181       -17.2842
  24   2.0000      -0.510133       -13.8814
  25   2.0000      -0.488204       -13.2847
  26   0.0000      -0.110695        -3.0122
  27   0.0000      -0.073568        -2.0019
  28   0.0000      -0.071163        -1.9364
  29   0.0000      -0.061582        -1.6757
  30   0.0000      -0.055104        -1.4995

MULLIKEN ATOMIC CHARGES
-----------------------
   0 C :   -0.465303
   1 C :   -0.315046
   2 C :   -0.464866
   3 C :   -0.463019
   4 C :   -0.315917
   5 C :   -0.463477
   6 H :    0.498627
   7 H :    0.319159
   8 H :    0.496189
   9 H :    0.497780
  10 H :    0.320597
  11 H :    0.500333
  12 H :    0.181045
  13 H :    0.181359
  14 H :    0.245109
  15 H :    0.243226
  16 N :    0.004205
Sum of atomic charges:    1.0000000

LOEWDIN ATOMIC CHARGES
----------------------
   0 C :    0.213089
   1 C :    0.152008
   2 C :    0.212657
   3 C :    0.212743
   4 C :    0.152340
   5 C :    0.213172
   6 H :   -0.153306
   7 H :   -0.147617
   8 H :   -0.153264
   9 H :   -0.153271
  10 H :   -0.147620
  11 H :   -0.153312
  12 H :   -0.100168
  13 H :   -0.100186
  14 H :   -0.232830
  15 H :   -0.232722
  16 N :    1.418286

  Mayer bond orders larger than 0.100000
B(  0-C ,  1-C ) :   1.2300 B(  0-C ,  2-C ) :   0.2935 B(  0-C ,  5-C ) :   1.0842
B(  0-C ,  6-H ) :   0.7620 B(  1-C ,  2-C ) :   1.2320 B(  1-C ,  7-H ) :   1.0665
B(  2-C ,  3-C ) :   1.0874 B(  2-C ,  8-H ) :   0.7667 B(  3-C ,  4-C ) :   1.2329
B(  3-C ,  5-C ) :   0.2922 B(  3-C ,  9-H ) :   0.7640 B(  4-C ,  5-C ) :   1.2309
B(  4-C , 10-H ) :   1.0635 B(  5-C , 11-H ) :   0.7590 B( 12-H , 16-N ) :   0.9937
B( 13-H , 16-N ) :   0.9934 B( 14-H , 16-N ) :   0.8502 B( 15-H , 16-N ) :   0.8521

E(0)                                       ...   -287.359198854
E(0)                                       ...   -287.359198854
E(CORR)(strong-pairs)                      ...     -1.238416536
E(CORR)(weak-pairs)                        ...     -0.004991455
E(CORR)(corrected)                         ...     -1.243407991
E(TOT)                                     ...   -288.602606845
E(CCSD(T))                                 ...   -288.660499281
FINAL SINGLE POINT ENERGY      -288.660499281479

DIPOLE MOMENT
-------------

Method             : SCF
Type of density    : Electron Density
Multiplicity       :   1
Irrep              :   0
Energy             :  -287.3591988368501688 Eh
Relativity type    :
Basis              : AO
                                X                 Y                 Z
Electronic contribution:      0.008481034      -0.004942713      -2.449137157
Nuclear contribution   :     -0.016378993       0.009807720       5.705080819
                        -----------------------------------------
Total Dipole Moment    :     -0.007897959       0.004865007       3.255943663
                        -----------------------------------------
Magnitude (a.u.)       :      3.255956876
Magnitude (Debye)      :      8.275984676

Rotational constants in cm-1:             0.093395             0.079203             0.078047
Rotational constants in MHz :          2799.898540          2374.445669          2339.782625

                             ****ORCA TERMINATED NORMALLY****
TOTAL RUN TIME: 0 days 0 hours 8 minutes 4 seconds 229 msec
