                         Program Version 6.0.1  -  RELEASE   -
|  1> ! aug-cc-pVTZ aug-cc-pVTZ/C DLPNO-CCSD(T)
|  2>
|  3> %maxcore 1000000
|  4> %PAL NPROCS 40 END
|  5>
|  6>
|  7> * xyz 0 1
|  8> C    1.196745   0.716602   0.000000
|  9> C    0.000000   1.394554   0.000000
| 10> C   -1.196745   0.716602   0.000000
| 11> C   -1.196745  -0.716602   0.000000
| 12> C    0.000000  -1.394554   0.000000
| 13> C    1.196745  -0.716602   0.000000
| 14> H    2.140067   1.281657   0.000000
| 15> H    0.000000   2.494008   0.000000
| 16> H   -2.140067   1.281657   0.000000
| 17> H   -2.140067  -1.281657   0.000000
| 18> H    0.000000  -2.494008   0.000000
| 19> H    2.140067  -1.281657   0.000000
| 20> *
| 21>
| 22>                          ****END OF INPUT****

CARTESIAN COORDINATES (ANGSTROEM)
---------------------------------
  C      1.196745    0.716602    0.000000
  C      0.000000    1.394554    0.000000
  C     -1.196745    0.716602    0.000000
  C     -1.196745   -0.716602    0.000000
  C      0.000000   -1.394554    0.000000
  C      1.196745   -0.716602    0.000000
  H      2.140067    1.281657    0.000000
  H      0.000000    2.494008    0.000000
  H     -2.140067    1.281657    0.000000
  H     -2.140067   -1.281657    0.000000
  H      0.000000   -2.494008    0.000000
  H      2.140067   -1.281657    0.000000

 Total Charge           Charge          ....    0
 Multiplicity           Mult            ....    1
 Number of Electrons    NEL             ....   42
 Basis Dimension        Dim             ....  414

ORBITAL ENERGIES
----------------

  NO   OCC          E(Eh)            E(eV)
   0   2.0000     -11.241087      -305.8855
   1   2.0000     -11.241006      -305.8833
   2   2.0000     -11.240108      -305.8589
   3   2.0000     -11.239965      -305.8550
   4   2.0000     -11.233040      -305.6666
   5   2.0000     -11.233040      -305.6665
   6   2.0000      -1.150446       -31.3052
   7   2.0000      -1.023680       -27.8558
   8   2.0000      -1.003618       -27.3098
   9   2.0000      -0.830468       -22.5982
  10   2.0000      -0.811490       -22.0818
  11   2.0000      -0.704752       -19.1773
  12   2.0000      -0.637135       -17.3373
  13   2.0000      -0.619393       -16.8545
  14   2.0000      -0.590668       -16.0729
  15   2.0000      -0.578004       -15.7283
  16   2.0000      -0.503133       -13.6910
  17   2.0000      -0.499893       -13.6028
  18   2.0000      -0.484529       -13.1847
  19   2.0000      -0.346818        -9.4374
  20   2.0000      -0.328223        -8.9314
  21   0.0000       0.029934         0.8145
  22   0.0000       0.034894         0.9495
  23   0.0000       0.035107         0.9553
  24   0.0000       0.048182         1.3111
  25   0.0000       0.048406         1.3172

MULLIKEN ATOMIC CHARGES
-----------------------
   0 C :   -0.406112
   1 C :   -0.482157
   2 C :   -0.406112
   3 C :   -0.406112
   4 C :   -0.482157
   5 C :   -0.406112
   6 H :    0.444158
   7 H :    0.406065
   8 H :    0.444158
   9 H :    0.444158
  10 H :    0.406065
  11 H :    0.444158
Sum of atomic charges:   -0.0000000

LOEWDIN ATOMIC CHARGES
----------------------
   0 C :    0.191781
   1 C :    0.139906
   2 C :    0.191781
   3 C :    0.191781
   4 C :    0.139906
   5 C :    0.191781
   6 H :   -0.176162
   7 H :   -0.171143
   8 H :   -0.176162
   9 H :   -0.176162
  10 H :   -0.171143
  11 H :   -0.176162

  Mayer bond orders larger than 0.100000
B(  0-C ,  1-C ) :   1.2080 B(  0-C ,  3-C ) :   0.1089 B(  0-C ,  5-C ) :   1.0603
B(  0-C ,  6-H ) :   0.8332 B(  1-C ,  2-C ) :   1.2080 B(  1-C ,  7-H ) :   0.8628
B(  2-C ,  3-C ) :   1.0603 B(  2-C ,  5-C ) :   0.1089 B(  2-C ,  8-H ) :   0.8332
B(  3-C ,  4-C ) :   1.2080 B(  3-C ,  9-H ) :   0.8332 B(  4-C ,  5-C ) :   1.2080
B(  4-C , 10-H ) :   0.8628 B(  5-C , 11-H ) :   0.8332

E(0)                                       ...   -230.774826526
E(0)                                       ...   -230.774826526
E(CORR)(strong-pairs)                      ...     -0.983890048
E(CORR)(weak-pairs)                        ...     -0.003240912
E(CORR)(corrected)                         ...     -0.987130960
E(TOT)                                     ...   -231.761957485
E(CCSD(T))                                 ...   -231.812105167
FINAL SINGLE POINT ENERGY      -231.812105166843

DIPOLE MOMENT
-------------

Method             : SCF
Type of density    : Electron Density
Multiplicity       :   1
Irrep              :   0
Energy             :  -230.7748264944618199 Eh
Relativity type    :
Basis              : AO
                                X                 Y                 Z
Electronic contribution:     -0.000000000       0.000000000       0.000000000
Nuclear contribution   :      0.000000000      -0.000000000       0.000000000
                        -----------------------------------------
Total Dipole Moment    :     -0.000000000       0.000000000       0.000000000
                        -----------------------------------------
Magnitude (a.u.)       :      0.000000000
Magnitude (Debye)      :      0.000000000

Rotational constants in cm-1:             0.193156             0.186166             0.094798
Rotational constants in MHz :          5790.678781          5581.107834          2841.981107

                             ****ORCA TERMINATED NORMALLY****
TOTAL RUN TIME: 0 days 0 hours 3 minutes 30 seconds 4 msec
